# Region type : patch ECA
# Faces       : 686
# Area        : 7.192203e-06
# Scale factor: 1.000000e+00
# Time        	average(p)	average(U)	average(H)
0.001         	8.490566e+00	(-1.988968e-02 -4.257951e-03 2.901645e-01)	4.500000e-01
