# Region type : patch ICA
# Faces       : 496
# Area        : 1.464920e-05
# Scale factor: 1.000000e+00
# Time        	average(p)	average(U)	average(H)
0.001         	8.490566e+00	(-1.150652e-01 1.039245e-02 3.230266e-01)	4.500000e-01
