# Region type : patch CCA
# Faces       : 723
# Area        : 3.087902e-05
# Scale factor: 1.000000e+00
# Time        	average(p)	average(U)	average(H)
0.001         	2.731317e+01	(0.000000e+00 0.000000e+00 2.210885e-01)	4.500000e-01
